file 10358360 1545913514                                        
version 2
run General-4-20181227-13:19:42-5564
attr configname General
attr datetime 20181227-13:19:42
attr experiment General
attr inifile omnetpp.ini
attr iterationvars ""
attr iterationvarsf ""
attr measurement ""
attr network CRan
attr processid 5564
attr repetition 4
attr replication #4
attr resultdir results
attr runnumber 4
attr seedset 4

vector 0 CRan.bbu waitingTimeStat:vector ETV
attr "" mean
attr source waitingTime
vector 1 CRan.bbu responseTimeStat:vector ETV
attr "" mean
attr source responseTime
vector 2 CRan.rrh[0] waitingTimeStat:vector ETV
attr "" mean
attr source waitingTime
vector 3 CRan.rrh[0] responseTimeStat:vector ETV
attr "" mean
attr source responseTime
vector 4 CRan.rrh[0] delayStat:vector ETV
attr "" mean
attr source delay
0	792 1263750 2 163849 0.01 49632.948194895338 32768 0 20.387584012537 61656.787663235 332259.34452125
1	1264542 1306769 5 163854 2.318 49634.425194895338 32768 0 21.942584012537 94492.482663234 519598.83985449
2	2571311 982652 6 163855 2.328 49634.435194895338 32768 0 0 0 0
3	3553963 982654 7 163856 2.328 49634.435194895338 32768 0 0 0 0
4	4536617 1306836 7 163856 2.328 49634.435194895338 32768 0.02 21.962584012537 95147.842663234 523391.64636102
0	5843453 974878 163854 287300 49634.425194895338 86396.305082024316 24693 0 23.279218345135 48679.100537809 291527.14166307
1	6818331 1007382 163857 287303 49635.031194895338 86398.577082024316 24693 0 24.509218345135 73141.084537809 437101.56658839
2	7825713 762632 163858 287304 49635.041194895338 86398.587082024316 24693 0 0 0 0
3	8588345 762632 163859 287305 49635.041194895338 86398.587082024316 24693 0 0 0 0
4	9350977 1007381 163859 287305 49635.041194895338 86398.587082024316 24693 0.02 24.529218345135 73634.944537809 440037.0871699

