file 10479216 1545913517                                        
version 2
run General-1-20181227-13:19:42-3812
attr configname General
attr datetime 20181227-13:19:42
attr experiment General
attr inifile omnetpp.ini
attr iterationvars ""
attr iterationvarsf ""
attr measurement ""
attr network CRan
attr processid 3812
attr repetition 1
attr replication #1
attr resultdir results
attr runnumber 1
attr seedset 1

vector 0 CRan.bbu waitingTimeStat:vector ETV
attr "" mean
attr source waitingTime
vector 1 CRan.bbu responseTimeStat:vector ETV
attr "" mean
attr source responseTime
vector 2 CRan.rrh[0] waitingTimeStat:vector ETV
attr "" mean
attr source waitingTime
vector 3 CRan.rrh[0] responseTimeStat:vector ETV
attr "" mean
attr source responseTime
vector 4 CRan.rrh[0] delayStat:vector ETV
attr "" mean
attr source delay
0	792 1265383 2 163837 0.01 48814.43032924145 32768 0 34.633096809156 67351.634183214 448977.43774093
1	1266175 1308196 13 163838 5.882 48814.79432924145 32768 0 35.30244400446 99972.351183214 648983.34306072
2	2574371 982684 15 163839 5.892 48814.80432924145 32768 0 0 0 0
3	3557055 982688 17 163840 5.892 48814.80432924145 32768 0 0 0 0
4	4539743 1308236 17 163840 5.892 48814.80432924145 32768 0.02 35.32244400446 100627.71118321 652995.34430804
0	5847979 1001765 163842 290210 48817.22675090108 86399.081008224025 25275 0 27.516442695583 52760.059357326 328926.30674268
1	6849744 1033818 163843 290210 48817.31375090108 86399.081008224025 25274 0 29.717442695583 78040.565803651 485325.89134681
2	7883562 780884 163844 290211 48817.32375090108 86399.091008224025 25274 0 0 0 0
3	8664446 780884 163845 290212 48817.32375090108 86399.091008224025 25274 0 0 0 0
4	9445330 1033884 163845 290212 48817.32375090108 86399.091008224025 25274 0.02 29.737442695583 78546.045803652 488457.62357895

