file 10450577 1545913517                                        
version 2
run General-6-20181227-13:19:42-2864
attr configname General
attr datetime 20181227-13:19:42
attr experiment General
attr inifile omnetpp.ini
attr iterationvars ""
attr iterationvarsf ""
attr measurement ""
attr network CRan
attr processid 2864
attr repetition 6
attr replication #6
attr resultdir results
attr runnumber 6
attr seedset 6

vector 0 CRan.bbu waitingTimeStat:vector ETV
attr "" mean
attr source waitingTime
vector 1 CRan.bbu responseTimeStat:vector ETV
attr "" mean
attr source responseTime
vector 2 CRan.rrh[0] waitingTimeStat:vector ETV
attr "" mean
attr source waitingTime
vector 3 CRan.rrh[0] responseTimeStat:vector ETV
attr "" mean
attr source responseTime
vector 4 CRan.rrh[0] delayStat:vector ETV
attr "" mean
attr source delay
0	792 1264943 2 163837 0.01 48892.891758384132 32768 0 21.892320525632 63001.275703175 363194.16724757
1	1265735 1307753 15 163842 2.956 48894.073758384132 32768 0 23.310320525632 95457.263703175 551147.728194
2	2573488 982482 16 163843 2.966 48894.083758384132 32768 0 0 0 0
3	3555970 982485 17 163844 2.966 48894.083758384132 32768 0 0 0 0
4	4538455 1307819 17 163844 2.966 48894.083758384132 32768 0.02 23.330320525632 96112.623703175 554979.12594213
0	5846274 994535 163842 289702 48894.073758384132 86395.430131193704 25173 0 24.680512894752 49523.111578243 297213.77284201
1	6840809 1027359 163845 289703 48894.420758384132 86395.463131193704 25173 0 25.530401298971 74426.840578242 444963.737315
2	7868168 777516 163846 289704 48894.430758384132 86395.473131193704 25173 0 0 0 0
3	8645684 777516 163847 289705 48894.430758384132 86395.473131193704 25173 0 0 0 0
4	9423200 1027375 163847 289705 48894.430758384132 86395.473131193704 25173 0.02 25.550401298971 74930.300578243 447950.88013813

