file 10334988 1545913514                                        
version 2
run General-2-20181227-13:19:42-10536
attr configname General
attr datetime 20181227-13:19:42
attr experiment General
attr inifile omnetpp.ini
attr iterationvars ""
attr iterationvarsf ""
attr measurement ""
attr network CRan
attr processid 10536
attr repetition 2
attr replication #2
attr resultdir results
attr runnumber 2
attr seedset 2

vector 0 CRan.bbu waitingTimeStat:vector ETV
attr "" mean
attr source waitingTime
vector 1 CRan.bbu responseTimeStat:vector ETV
attr "" mean
attr source responseTime
vector 2 CRan.rrh[0] waitingTimeStat:vector ETV
attr "" mean
attr source waitingTime
vector 3 CRan.rrh[0] responseTimeStat:vector ETV
attr "" mean
attr source responseTime
vector 4 CRan.rrh[0] delayStat:vector ETV
attr "" mean
attr source delay
0	794 1260617 2 163837 0.01 49353.816764954009 32768 0 21.838415031981 59322.305276208 311716.43308207
1	1261411 1304402 5 163840 0.214 49354.827764954009 32768 0 22.492415031981 91941.28127621 494142.87259526
2	2565813 982056 6 163841 0.224 49354.837764954009 32768 0 0 0 0
3	3547869 982057 7 163842 0.224 49354.837764954009 32768 0 0 0 0
4	4529926 1304471 7 163842 0.224 49354.837764954009 32768 0.02 22.512415031981 92596.641276208 497833.63104631
0	5834397 971306 163840 286960 49354.827764954009 86398.328569794885 24625 0 27.188093152553 47695.498338359 293469.18783566
1	6805703 1003920 163843 286963 49354.865764954009 86399.315569794885 24625 0 29.789322954087 72138.417338359 437016.44794961
2	7809623 760702 163844 286964 49354.875764954009 86399.325569794885 24625 0 0 0 0
3	8570325 760702 163845 286965 49354.875764954009 86399.325569794885 24625 0 0 0 0
4	9331027 1003959 163845 286965 49354.875764954009 86399.325569794885 24625 0.02 29.809322954087 72630.917338359 439911.83464314

