file 10358569 1545913515                                        
version 2
run General-9-20181227-13:19:42-2008
attr configname General
attr datetime 20181227-13:19:42
attr experiment General
attr inifile omnetpp.ini
attr iterationvars ""
attr iterationvarsf ""
attr measurement ""
attr network CRan
attr processid 2008
attr repetition 9
attr replication #9
attr resultdir results
attr runnumber 9
attr seedset 9

vector 0 CRan.bbu waitingTimeStat:vector ETV
attr "" mean
attr source waitingTime
vector 1 CRan.bbu responseTimeStat:vector ETV
attr "" mean
attr source responseTime
vector 2 CRan.rrh[0] waitingTimeStat:vector ETV
attr "" mean
attr source waitingTime
vector 3 CRan.rrh[0] responseTimeStat:vector ETV
attr "" mean
attr source responseTime
vector 4 CRan.rrh[0] delayStat:vector ETV
attr "" mean
attr source delay
0	792 1260047 2 163837 0.01 49616.706465699253 32768 0 21.668385079368 59983.448993158 322464.21122055
1	1260839 1304256 3 163842 0.463 49618.770465699253 32768 0 21.980568280127 92422.967993159 505120.47004474
2	2565095 982657 4 163843 0.473 49618.780465699253 32768 0 0 0 0
3	3547752 982658 5 163844 0.473 49618.780465699253 32768 0 0 0 0
4	4530410 1304280 5 163844 0.473 49618.780465699253 32768 0.02 22.000568280127 93078.327993158 508830.49596447
0	5834690 978339 163842 287367 49618.770465699253 86397.644157155461 24706 0 23.802811040239 54045.488652367 352064.36747615
1	6813029 1009935 163845 287368 49619.053465699253 86398.137157155461 24706 0 24.247811040239 78862.024652368 510941.35946448
2	7822964 762823 163846 287369 49619.063465699253 86398.147157155461 24706 0 0 0 0
3	8585787 762823 163847 287370 49619.063465699253 86398.147157155461 24706 0 0 0 0
4	9348610 1009957 163847 287370 49619.063465699253 86398.147157155461 24706 0.02 24.267811040239 79356.144652367 514105.72285058

