file 10490612 1545913518                                        
version 2
run General-8-20181227-13:19:42-8928
attr configname General
attr datetime 20181227-13:19:42
attr experiment General
attr inifile omnetpp.ini
attr iterationvars ""
attr iterationvarsf ""
attr measurement ""
attr network CRan
attr processid 8928
attr repetition 8
attr replication #8
attr resultdir results
attr runnumber 8
attr seedset 8

vector 0 CRan.bbu waitingTimeStat:vector ETV
attr "" mean
attr source waitingTime
vector 1 CRan.bbu responseTimeStat:vector ETV
attr "" mean
attr source responseTime
vector 2 CRan.rrh[0] waitingTimeStat:vector ETV
attr "" mean
attr source waitingTime
vector 3 CRan.rrh[0] responseTimeStat:vector ETV
attr "" mean
attr source responseTime
vector 4 CRan.rrh[0] delayStat:vector ETV
attr "" mean
attr source delay
0	792 1266935 2 163835 0.01 48485.19135391326 32768 0 22.544654973239 67751.523470994 416718.10489432
1	1267727 1309116 3 163838 0.021 48485.26735391326 32768 0 23.33782282426 100203.39347099 614268.21261002
2	2576843 982411 4 163839 0.031 48485.27735391326 32768 0 0 0 0
3	3559254 982413 5 163840 0.031 48485.27735391326 32768 0 0 0 0
4	4541667 1309182 5 163840 0.031 48485.27735391326 32768 0.02 23.35782282426 100858.75347099 618289.45554887
0	5850849 1003133 163842 290503 48487.038976342089 86398.517203956656 25332 0 25.652396134434 54267.690772208 353596.71755708
1	6853982 1035680 163845 290503 48487.611976342089 86398.517203956656 25331 0 26.467396134434 79613.643853165 515133.46100492
2	7889662 782621 163846 290504 48487.621976342089 86398.527203956656 25331 0 0 0 0
3	8672283 782621 163847 290505 48487.621976342089 86398.527203956656 25331 0 0 0 0
4	9454904 1035706 163847 290505 48487.621976342089 86398.527203956656 25331 0.02 26.487396134434 80120.263853167 518328.13915905

