file 10436827 1545913516                                        
version 2
run General-5-20181227-13:19:42-6880
attr configname General
attr datetime 20181227-13:19:42
attr experiment General
attr inifile omnetpp.ini
attr iterationvars ""
attr iterationvarsf ""
attr measurement ""
attr network CRan
attr processid 6880
attr repetition 5
attr replication #5
attr resultdir results
attr runnumber 5
attr seedset 5

vector 0 CRan.bbu waitingTimeStat:vector ETV
attr "" mean
attr source waitingTime
vector 1 CRan.bbu responseTimeStat:vector ETV
attr "" mean
attr source responseTime
vector 2 CRan.rrh[0] waitingTimeStat:vector ETV
attr "" mean
attr source waitingTime
vector 3 CRan.rrh[0] responseTimeStat:vector ETV
attr "" mean
attr source responseTime
vector 4 CRan.rrh[0] delayStat:vector ETV
attr "" mean
attr source delay
0	792 1269199 2 163835 0.01 48955.508543761126 32768 0 22.297108421558 69047.04685934 426025.95790282
1	1269991 1310880 3 163838 0.066 48958.053543761126 32768 0 23.571680508259 102020.97185934 631374.67895706
2	2580871 982508 4 163839 0.076 48958.063543761126 32768 0 0 0 0
3	3563379 982511 5 163840 0.076 48958.063543761126 32768 0 0 0 0
4	4545890 1310926 5 163840 0.076 48958.063543761126 32768 0.02 23.591680508259 102676.33185934 635468.62503143
0	5856816 989529 163842 289009 48958.877859774656 86399.904142939287 25032 0 23.113914601298 51176.766032985 313468.88226042
1	6846345 1021968 163843 289009 48959.105859774656 86399.904142939287 25031 0 24.608217738685 76185.733007455 465423.85648795
2	7868313 773254 163844 289010 48959.115859774656 86399.914142939287 25031 0 0 0 0
3	8641567 773254 163845 289011 48959.115859774656 86399.914142939287 25031 0 0 0 0
4	9414821 1022004 163845 289011 48959.115859774656 86399.914142939287 25031 0.02 24.628217738685 76686.353007455 468481.29820824

