file 10311132 1545913513                                        
version 2
run General-3-20181227-13:19:42-10192
attr configname General
attr datetime 20181227-13:19:42
attr experiment General
attr inifile omnetpp.ini
attr iterationvars ""
attr iterationvarsf ""
attr measurement ""
attr network CRan
attr processid 10192
attr repetition 3
attr replication #3
attr resultdir results
attr runnumber 3
attr seedset 3

vector 0 CRan.bbu waitingTimeStat:vector ETV
attr "" mean
attr source waitingTime
vector 1 CRan.bbu responseTimeStat:vector ETV
attr "" mean
attr source responseTime
vector 2 CRan.rrh[0] waitingTimeStat:vector ETV
attr "" mean
attr source waitingTime
vector 3 CRan.rrh[0] responseTimeStat:vector ETV
attr "" mean
attr source responseTime
vector 4 CRan.rrh[0] delayStat:vector ETV
attr "" mean
attr source delay
0	794 1263538 2 163837 0.01 49427.677445614082 32768 0 21.575496951562 65506.138902789 375855.77806915
1	1264332 1306772 3 163838 0.083 49428.803445614082 32768 0 22.864827764023 98423.784902789 573353.22761714
2	2571104 982747 4 163839 0.093 49428.813445614082 32768 0 0 0 0
3	3553851 982748 5 163840 0.093 49428.813445614082 32768 0 0 0 0
4	4536599 1306836 5 163840 0.093 49428.813445614082 32768 0.02 22.884827764023 99079.144902789 577303.28621325
0	5843435 964937 163842 286041 49436.017343964381 86399.238812812357 24440 0 24.77757169443 47942.753811907 278624.5899914
1	6808372 996917 163845 286041 49436.636343964381 86399.238812812357 24439 0 25.69557169443 72632.335251307 425554.54321601
2	7805289 754468 163846 286042 49436.646343964381 86399.248812812357 24439 0 0 0 0
3	8559757 754468 163847 286043 49436.646343964381 86399.248812812357 24439 0 0 0 0
4	9314225 996905 163847 286043 49436.646343964381 86399.248812812357 24439 0.02 25.71557169443 73121.115251307 428469.61222605

