file 10476354 1545913517                                        
version 2
run General-0-20181227-13:19:42-7460
attr configname General
attr datetime 20181227-13:19:42
attr experiment General
attr inifile omnetpp.ini
attr iterationvars ""
attr iterationvarsf ""
attr measurement ""
attr network CRan
attr processid 7460
attr repetition 0
attr replication #0
attr resultdir results
attr runnumber 0
attr seedset 0

vector 0 CRan.bbu waitingTimeStat:vector ETV
attr "" mean
attr source waitingTime
vector 1 CRan.bbu responseTimeStat:vector ETV
attr "" mean
attr source responseTime
vector 2 CRan.rrh[0] waitingTimeStat:vector ETV
attr "" mean
attr source waitingTime
vector 3 CRan.rrh[0] responseTimeStat:vector ETV
attr "" mean
attr source responseTime
vector 4 CRan.rrh[0] delayStat:vector ETV
attr "" mean
attr source delay
0	792 1267555 2 163835 0.01 48613.524018754293 32768 0 22.248621732078 66400.328859421 387314.49468713
1	1268347 1309656 3 163840 0.908 48616.082018754293 32768 0 23.251377382168 99114.290859421 585552.98407294
2	2578003 982735 4 163841 0.918 48616.092018754293 32768 0 0 0 0
3	3560738 982736 5 163842 0.918 48616.092018754293 32768 0 0 0 0
4	4543474 1309706 5 163842 0.918 48616.092018754293 32768 0.02 23.271377382168 99769.650859421 589530.66290731
0	5853180 999760 163840 290037 48616.082018754293 86399.15117558576 25240 0 22.784228806616 50859.290634716 291671.34786121
1	6852940 1031932 163845 290033 48617.714018754293 86398.107328570548 25239 0 23.018228806616 76185.088634716 443033.7535837
2	7884872 779766 163846 290034 48617.724018754293 86398.117328570548 25239 0 0 0 0
3	8664638 779766 163847 290035 48617.724018754293 86398.117328570548 25239 0 0 0 0
4	9444404 1031948 163847 290035 48617.724018754293 86398.117328570548 25239 0.02 23.038228806616 76689.868634716 446091.25272909

