file 10331524 1545913514                                        
version 2
run General-7-20181227-13:19:42-9404
attr configname General
attr datetime 20181227-13:19:42
attr experiment General
attr inifile omnetpp.ini
attr iterationvars ""
attr iterationvarsf ""
attr measurement ""
attr network CRan
attr processid 9404
attr repetition 7
attr replication #7
attr resultdir results
attr runnumber 7
attr seedset 7

vector 0 CRan.bbu waitingTimeStat:vector ETV
attr "" mean
attr source waitingTime
vector 1 CRan.bbu responseTimeStat:vector ETV
attr "" mean
attr source responseTime
vector 2 CRan.rrh[0] waitingTimeStat:vector ETV
attr "" mean
attr source waitingTime
vector 3 CRan.rrh[0] responseTimeStat:vector ETV
attr "" mean
attr source responseTime
vector 4 CRan.rrh[0] delayStat:vector ETV
attr "" mean
attr source delay
0	792 1265386 2 163837 0.01 49307.191458035658 32768 0 23.925791799752 66601.032162496 406585.66581837
1	1266178 1307998 3 163844 0.267 49309.361458035658 32768 0 24.796524176303 99495.459162496 606091.86277907
2	2574176 982274 4 163845 0.277 49309.371458035658 32768 0 0 0 0
3	3556450 982275 5 163846 0.277 49309.371458035658 32768 0 0 0 0
4	4538725 1308040 5 163846 0.277 49309.371458035658 32768 0.02 24.816524176303 100150.8191625 610084.78834556
0	5846765 967740 163844 286547 49309.361458035658 86397.98076570351 24542 0 25.860081687661 49579.926337424 317290.50668799
1	6814505 1000407 163851 286548 49310.707458035658 86397.98776570351 24542 0 27.148812907325 74090.327337424 467199.33098581
2	7814912 758066 163852 286549 49310.717458035658 86397.99776570351 24542 0 0 0 0
3	8572978 758066 163853 286550 49310.717458035658 86397.99776570351 24542 0 0 0 0
4	9331044 1000478 163853 286550 49310.717458035658 86397.99776570351 24542 0.02 27.168812907325 74581.167337424 470172.7608793

